Program Version,EnergyPlus, Version 8.7.0-78a111df4a, YMD=2017.04.24 16:31
1,5,Environment Title[],Latitude[deg],Longitude[deg],Time Zone[],Elevation[m]
2,6,Day of Simulation[],Month[],Day of Month[],DST Indicator[1=yes 0=no],Hour[],StartMinute[],EndMinute[],DayType
3,3,Cumulative Day of Simulation[],Month[],Day of Month[],DST Indicator[1=yes 0=no],DayType  ! When Daily Report Variables Requested
4,2,Cumulative Days of Simulation[],Month[]  ! When Monthly Report Variables Requested
5,1,Cumulative Days of Simulation[] ! When Run Period Report Variables Requested
59,1,Cooling:EnergyTransfer [J] !Hourly
38,1,Heating:EnergyTransfer [J] !Hourly
End of Data Dictionary
1,SINGAPORE - SGP IWEC Data WMO#=486980,   1.37, 103.98,   8.00,  16.00
2,1, 1, 1, 0, 1, 0.00,60.00,Sunday
38,0.0
59,0.0
2,1, 1, 1, 0, 2, 0.00,60.00,Sunday
38,0.0
59,0.0
2,1, 1, 1, 0, 3, 0.00,60.00,Sunday
38,0.0
59,0.0
2,1, 1, 1, 0, 4, 0.00,60.00,Sunday
38,0.0
59,0.0
2,1, 1, 1, 0, 5, 0.00,60.00,Sunday
38,0.0
59,0.0
2,1, 1, 1, 0, 6, 0.00,60.00,Sunday
38,0.0
59,0.0
2,1, 1, 1, 0, 7, 0.00,60.00,Sunday
38,0.0
59,0.0
2,1, 1, 1, 0, 8, 0.00,60.00,Sunday
38,0.0
59,0.0
2,1, 1, 1, 0, 9, 0.00,60.00,Sunday
38,0.0
59,0.0
2,1, 1, 1, 0,10, 0.00,60.00,Sunday
38,0.0
59,7357356.043004035
2,1, 1, 1, 0,11, 0.00,60.00,Sunday
38,0.0
59,8617902.774025403
2,1, 1, 1, 0,12, 0.00,60.00,Sunday
38,0.0
59,10162181.109430261
2,1, 1, 1, 0,13, 0.00,60.00,Sunday
38,0.0
59,11764106.069599575
2,1, 1, 1, 0,14, 0.00,60.00,Sunday
38,0.0
59,13286097.76630773
2,1, 1, 1, 0,15, 0.00,60.00,Sunday
38,0.0
59,14577951.364696699
2,1, 1, 1, 0,16, 0.00,60.00,Sunday
38,0.0
59,15492995.197392736
2,1, 1, 1, 0,17, 0.00,60.00,Sunday
38,0.0
59,15622517.064996742
2,1, 1, 1, 0,18, 0.00,60.00,Sunday
38,0.0
59,0.0
2,1, 1, 1, 0,19, 0.00,60.00,Sunday
38,0.0
59,0.0
2,1, 1, 1, 0,20, 0.00,60.00,Sunday
38,0.0
59,0.0
2,1, 1, 1, 0,21, 0.00,60.00,Sunday
38,0.0
59,0.0
2,1, 1, 1, 0,22, 0.00,60.00,Sunday
38,0.0
59,0.0
2,1, 1, 1, 0,23, 0.00,60.00,Sunday
38,0.0
59,0.0
2,1, 1, 1, 0,24, 0.00,60.00,Sunday
38,0.0
59,0.0
2,2, 1, 2, 0, 1, 0.00,60.00,Monday
38,0.0
59,0.0
2,2, 1, 2, 0, 2, 0.00,60.00,Monday
38,0.0
59,0.0
2,2, 1, 2, 0, 3, 0.00,60.00,Monday
38,0.0
59,0.0
2,2, 1, 2, 0, 4, 0.00,60.00,Monday
38,0.0
59,0.0
2,2, 1, 2, 0, 5, 0.00,60.00,Monday
38,0.0
59,0.0
2,2, 1, 2, 0, 6, 0.00,60.00,Monday
38,0.0
59,0.0
2,2, 1, 2, 0, 7, 0.00,60.00,Monday
38,0.0
59,0.0
2,2, 1, 2, 0, 8, 0.00,60.00,Monday
38,0.0
59,0.0
2,2, 1, 2, 0, 9, 0.00,60.00,Monday
38,0.0
59,0.0
2,2, 1, 2, 0,10, 0.00,60.00,Monday
38,0.0
59,7691079.8196305329
2,2, 1, 2, 0,11, 0.00,60.00,Monday
38,0.0
59,8914407.306150929
2,2, 1, 2, 0,12, 0.00,60.00,Monday
38,0.0
59,10587687.482179072
2,2, 1, 2, 0,13, 0.00,60.00,Monday
38,0.0
59,12415492.181538986
2,2, 1, 2, 0,14, 0.00,60.00,Monday
38,0.0
59,13906694.151408846
2,2, 1, 2, 0,15, 0.00,60.00,Monday
38,0.0
59,15164822.886473041
2,2, 1, 2, 0,16, 0.00,60.00,Monday
38,0.0
59,15754968.078024766
2,2, 1, 2, 0,17, 0.00,60.00,Monday
38,0.0
59,15547060.473270456
2,2, 1, 2, 0,18, 0.00,60.00,Monday
38,0.0
59,0.0
2,2, 1, 2, 0,19, 0.00,60.00,Monday
38,0.0
59,0.0
2,2, 1, 2, 0,20, 0.00,60.00,Monday
38,0.0
59,0.0
2,2, 1, 2, 0,21, 0.00,60.00,Monday
38,0.0
59,0.0
2,2, 1, 2, 0,22, 0.00,60.00,Monday
38,0.0
59,0.0
2,2, 1, 2, 0,23, 0.00,60.00,Monday
38,0.0
59,0.0
2,2, 1, 2, 0,24, 0.00,60.00,Monday
38,0.0
59,0.0
2,3, 1, 3, 0, 1, 0.00,60.00,Tuesday
38,0.0
59,0.0
2,3, 1, 3, 0, 2, 0.00,60.00,Tuesday
38,0.0
59,0.0
2,3, 1, 3, 0, 3, 0.00,60.00,Tuesday
38,0.0
59,0.0
2,3, 1, 3, 0, 4, 0.00,60.00,Tuesday
38,0.0
59,0.0
2,3, 1, 3, 0, 5, 0.00,60.00,Tuesday
38,0.0
59,0.0
2,3, 1, 3, 0, 6, 0.00,60.00,Tuesday
38,0.0
59,0.0
2,3, 1, 3, 0, 7, 0.00,60.00,Tuesday
38,0.0
59,0.0
2,3, 1, 3, 0, 8, 0.00,60.00,Tuesday
38,0.0
59,0.0
2,3, 1, 3, 0, 9, 0.00,60.00,Tuesday
38,0.0
59,0.0
2,3, 1, 3, 0,10, 0.00,60.00,Tuesday
38,0.0
59,7940295.248414737
2,3, 1, 3, 0,11, 0.00,60.00,Tuesday
38,0.0
59,9224436.248603378
2,3, 1, 3, 0,12, 0.00,60.00,Tuesday
38,0.0
59,10956848.641459458
2,3, 1, 3, 0,13, 0.00,60.00,Tuesday
38,0.0
59,12860778.360322217
2,3, 1, 3, 0,14, 0.00,60.00,Tuesday
38,0.0
59,14670146.393486008
2,3, 1, 3, 0,15, 0.00,60.00,Tuesday
38,0.0
59,16192343.4648573
2,3, 1, 3, 0,16, 0.00,60.00,Tuesday
38,0.0
59,17074808.2421538
2,3, 1, 3, 0,17, 0.00,60.00,Tuesday
38,0.0
59,17290762.66066491
2,3, 1, 3, 0,18, 0.00,60.00,Tuesday
38,0.0
59,0.0
2,3, 1, 3, 0,19, 0.00,60.00,Tuesday
38,0.0
59,0.0
2,3, 1, 3, 0,20, 0.00,60.00,Tuesday
38,0.0
59,0.0
2,3, 1, 3, 0,21, 0.00,60.00,Tuesday
38,0.0
59,0.0
2,3, 1, 3, 0,22, 0.00,60.00,Tuesday
38,0.0
59,0.0
2,3, 1, 3, 0,23, 0.00,60.00,Tuesday
38,0.0
59,0.0
2,3, 1, 3, 0,24, 0.00,60.00,Tuesday
38,0.0
59,0.0
2,4, 1, 4, 0, 1, 0.00,60.00,Wednesday
38,0.0
59,0.0
2,4, 1, 4, 0, 2, 0.00,60.00,Wednesday
38,0.0
59,0.0
2,4, 1, 4, 0, 3, 0.00,60.00,Wednesday
38,0.0
59,0.0
2,4, 1, 4, 0, 4, 0.00,60.00,Wednesday
38,0.0
59,0.0
2,4, 1, 4, 0, 5, 0.00,60.00,Wednesday
38,0.0
59,0.0
2,4, 1, 4, 0, 6, 0.00,60.00,Wednesday
38,0.0
59,0.0
2,4, 1, 4, 0, 7, 0.00,60.00,Wednesday
38,0.0
59,0.0
2,4, 1, 4, 0, 8, 0.00,60.00,Wednesday
38,0.0
59,0.0
2,4, 1, 4, 0, 9, 0.00,60.00,Wednesday
38,0.0
59,0.0
2,4, 1, 4, 0,10, 0.00,60.00,Wednesday
38,0.0
59,8182641.119448392
2,4, 1, 4, 0,11, 0.00,60.00,Wednesday
38,0.0
59,9441809.876061757
2,4, 1, 4, 0,12, 0.00,60.00,Wednesday
38,0.0
59,11152746.918984855
2,4, 1, 4, 0,13, 0.00,60.00,Wednesday
38,0.0
59,12916863.370193197
2,4, 1, 4, 0,14, 0.00,60.00,Wednesday
38,0.0
59,14288206.551628434
2,4, 1, 4, 0,15, 0.00,60.00,Wednesday
38,0.0
59,15430047.324825462
2,4, 1, 4, 0,16, 0.00,60.00,Wednesday
38,0.0
59,15940892.499629025
2,4, 1, 4, 0,17, 0.00,60.00,Wednesday
38,0.0
59,15710839.81018153
2,4, 1, 4, 0,18, 0.00,60.00,Wednesday
38,0.0
59,0.0
2,4, 1, 4, 0,19, 0.00,60.00,Wednesday
38,0.0
59,0.0
2,4, 1, 4, 0,20, 0.00,60.00,Wednesday
38,0.0
59,0.0
2,4, 1, 4, 0,21, 0.00,60.00,Wednesday
38,0.0
59,0.0
2,4, 1, 4, 0,22, 0.00,60.00,Wednesday
38,0.0
59,0.0
2,4, 1, 4, 0,23, 0.00,60.00,Wednesday
38,0.0
59,0.0
2,4, 1, 4, 0,24, 0.00,60.00,Wednesday
38,0.0
59,0.0
2,5, 1, 5, 0, 1, 0.00,60.00,Thursday
38,0.0
59,0.0
2,5, 1, 5, 0, 2, 0.00,60.00,Thursday
38,0.0
59,0.0
2,5, 1, 5, 0, 3, 0.00,60.00,Thursday
38,0.0
59,0.0
2,5, 1, 5, 0, 4, 0.00,60.00,Thursday
38,0.0
59,0.0
2,5, 1, 5, 0, 5, 0.00,60.00,Thursday
38,0.0
59,0.0
2,5, 1, 5, 0, 6, 0.00,60.00,Thursday
38,0.0
59,0.0
2,5, 1, 5, 0, 7, 0.00,60.00,Thursday
38,0.0
59,0.0
2,5, 1, 5, 0, 8, 0.00,60.00,Thursday
38,0.0
59,0.0
2,5, 1, 5, 0, 9, 0.00,60.00,Thursday
38,0.0
59,0.0
2,5, 1, 5, 0,10, 0.00,60.00,Thursday
38,0.0
59,8043180.632068686
2,5, 1, 5, 0,11, 0.00,60.00,Thursday
38,0.0
59,9274490.311489253
2,5, 1, 5, 0,12, 0.00,60.00,Thursday
38,0.0
59,10962784.950043455
2,5, 1, 5, 0,13, 0.00,60.00,Thursday
38,0.0
59,12706661.223316847
2,5, 1, 5, 0,14, 0.00,60.00,Thursday
38,0.0
59,14042485.604090643
2,5, 1, 5, 0,15, 0.00,60.00,Thursday
38,0.0
59,14809501.78855831
2,5, 1, 5, 0,16, 0.00,60.00,Thursday
38,0.0
59,14658347.660743058
2,5, 1, 5, 0,17, 0.00,60.00,Thursday
38,0.0
59,13755680.158536226
2,5, 1, 5, 0,18, 0.00,60.00,Thursday
38,0.0
59,0.0
2,5, 1, 5, 0,19, 0.00,60.00,Thursday
38,0.0
59,0.0
2,5, 1, 5, 0,20, 0.00,60.00,Thursday
38,0.0
59,0.0
2,5, 1, 5, 0,21, 0.00,60.00,Thursday
38,0.0
59,0.0
2,5, 1, 5, 0,22, 0.00,60.00,Thursday
38,0.0
59,0.0
2,5, 1, 5, 0,23, 0.00,60.00,Thursday
38,0.0
59,0.0
2,5, 1, 5, 0,24, 0.00,60.00,Thursday
38,0.0
59,0.0
2,6, 1, 6, 0, 1, 0.00,60.00,Friday
38,0.0
59,0.0
2,6, 1, 6, 0, 2, 0.00,60.00,Friday
38,0.0
59,0.0
2,6, 1, 6, 0, 3, 0.00,60.00,Friday
38,0.0
59,0.0
2,6, 1, 6, 0, 4, 0.00,60.00,Friday
38,0.0
59,0.0
2,6, 1, 6, 0, 5, 0.00,60.00,Friday
38,0.0
59,0.0
2,6, 1, 6, 0, 6, 0.00,60.00,Friday
38,0.0
59,0.0
2,6, 1, 6, 0, 7, 0.00,60.00,Friday
38,0.0
59,0.0
2,6, 1, 6, 0, 8, 0.00,60.00,Friday
38,0.0
59,0.0
2,6, 1, 6, 0, 9, 0.00,60.00,Friday
38,0.0
59,0.0
2,6, 1, 6, 0,10, 0.00,60.00,Friday
38,0.0
59,7321912.303578904
2,6, 1, 6, 0,11, 0.00,60.00,Friday
38,0.0
59,8663927.571597223
2,6, 1, 6, 0,12, 0.00,60.00,Friday
38,0.0
59,10368003.098772847
2,6, 1, 6, 0,13, 0.00,60.00,Friday
38,0.0
59,12224302.167986019
2,6, 1, 6, 0,14, 0.00,60.00,Friday
38,0.0
59,13756880.567862822
2,6, 1, 6, 0,15, 0.00,60.00,Friday
38,0.0
59,15102514.288197274
2,6, 1, 6, 0,16, 0.00,60.00,Friday
38,0.0
59,15798286.036706612
2,6, 1, 6, 0,17, 0.00,60.00,Friday
38,0.0
59,15643796.102874458
2,6, 1, 6, 0,18, 0.00,60.00,Friday
38,0.0
59,0.0
2,6, 1, 6, 0,19, 0.00,60.00,Friday
38,0.0
59,0.0
2,6, 1, 6, 0,20, 0.00,60.00,Friday
38,0.0
59,0.0
2,6, 1, 6, 0,21, 0.00,60.00,Friday
38,0.0
59,0.0
2,6, 1, 6, 0,22, 0.00,60.00,Friday
38,0.0
59,0.0
2,6, 1, 6, 0,23, 0.00,60.00,Friday
38,0.0
59,0.0
2,6, 1, 6, 0,24, 0.00,60.00,Friday
38,0.0
59,0.0
2,7, 1, 7, 0, 1, 0.00,60.00,Saturday
38,0.0
59,0.0
2,7, 1, 7, 0, 2, 0.00,60.00,Saturday
38,0.0
59,0.0
2,7, 1, 7, 0, 3, 0.00,60.00,Saturday
38,0.0
59,0.0
2,7, 1, 7, 0, 4, 0.00,60.00,Saturday
38,0.0
59,0.0
2,7, 1, 7, 0, 5, 0.00,60.00,Saturday
38,0.0
59,0.0
2,7, 1, 7, 0, 6, 0.00,60.00,Saturday
38,0.0
59,0.0
2,7, 1, 7, 0, 7, 0.00,60.00,Saturday
38,0.0
59,0.0
2,7, 1, 7, 0, 8, 0.00,60.00,Saturday
38,0.0
59,0.0
2,7, 1, 7, 0, 9, 0.00,60.00,Saturday
38,0.0
59,0.0
2,7, 1, 7, 0,10, 0.00,60.00,Saturday
38,0.0
59,7630082.622757855
2,7, 1, 7, 0,11, 0.00,60.00,Saturday
38,0.0
59,8931228.852357347
2,7, 1, 7, 0,12, 0.00,60.00,Saturday
38,0.0
59,10612735.487665888
2,7, 1, 7, 0,13, 0.00,60.00,Saturday
38,0.0
59,12467093.96187462
2,7, 1, 7, 0,14, 0.00,60.00,Saturday
38,0.0
59,14058382.798006105
2,7, 1, 7, 0,15, 0.00,60.00,Saturday
38,0.0
59,15522378.481043229
2,7, 1, 7, 0,16, 0.00,60.00,Saturday
38,0.0
59,16336148.238630172
2,7, 1, 7, 0,17, 0.00,60.00,Saturday
38,0.0
59,16262757.421836479
2,7, 1, 7, 0,18, 0.00,60.00,Saturday
38,0.0
59,0.0
2,7, 1, 7, 0,19, 0.00,60.00,Saturday
38,0.0
59,0.0
2,7, 1, 7, 0,20, 0.00,60.00,Saturday
38,0.0
59,0.0
2,7, 1, 7, 0,21, 0.00,60.00,Saturday
38,0.0
59,0.0
2,7, 1, 7, 0,22, 0.00,60.00,Saturday
38,0.0
59,0.0
2,7, 1, 7, 0,23, 0.00,60.00,Saturday
38,0.0
59,0.0
2,7, 1, 7, 0,24, 0.00,60.00,Saturday
38,0.0
59,0.0
2,8, 1, 8, 0, 1, 0.00,60.00,Sunday
38,0.0
59,0.0
2,8, 1, 8, 0, 2, 0.00,60.00,Sunday
38,0.0
59,0.0
2,8, 1, 8, 0, 3, 0.00,60.00,Sunday
38,0.0
59,0.0
2,8, 1, 8, 0, 4, 0.00,60.00,Sunday
38,0.0
59,0.0
2,8, 1, 8, 0, 5, 0.00,60.00,Sunday
38,0.0
59,0.0
2,8, 1, 8, 0, 6, 0.00,60.00,Sunday
38,0.0
59,0.0
2,8, 1, 8, 0, 7, 0.00,60.00,Sunday
38,0.0
59,0.0
2,8, 1, 8, 0, 8, 0.00,60.00,Sunday
38,0.0
59,0.0
2,8, 1, 8, 0, 9, 0.00,60.00,Sunday
38,0.0
59,0.0
2,8, 1, 8, 0,10, 0.00,60.00,Sunday
38,0.0
59,7749672.678270376
2,8, 1, 8, 0,11, 0.00,60.00,Sunday
38,0.0
59,9034158.957775779
2,8, 1, 8, 0,12, 0.00,60.00,Sunday
38,0.0
59,10770197.035010923
2,8, 1, 8, 0,13, 0.00,60.00,Sunday
38,0.0
59,12706293.815090439
2,8, 1, 8, 0,14, 0.00,60.00,Sunday
38,0.0
59,14524730.423580287
2,8, 1, 8, 0,15, 0.00,60.00,Sunday
38,0.0
59,15903738.851721462
2,8, 1, 8, 0,16, 0.00,60.00,Sunday
38,0.0
59,16829143.118397744
2,8, 1, 8, 0,17, 0.00,60.00,Sunday
38,0.0
59,17153054.045711537
2,8, 1, 8, 0,18, 0.00,60.00,Sunday
38,0.0
59,0.0
2,8, 1, 8, 0,19, 0.00,60.00,Sunday
38,0.0
59,0.0
2,8, 1, 8, 0,20, 0.00,60.00,Sunday
38,0.0
59,0.0
2,8, 1, 8, 0,21, 0.00,60.00,Sunday
38,0.0
59,0.0
2,8, 1, 8, 0,22, 0.00,60.00,Sunday
38,0.0
59,0.0
2,8, 1, 8, 0,23, 0.00,60.00,Sunday
38,0.0
59,0.0
2,8, 1, 8, 0,24, 0.00,60.00,Sunday
38,0.0
59,0.0
2,9, 1, 9, 0, 1, 0.00,60.00,Monday
38,0.0
59,0.0
2,9, 1, 9, 0, 2, 0.00,60.00,Monday
38,0.0
59,0.0
2,9, 1, 9, 0, 3, 0.00,60.00,Monday
38,0.0
59,0.0
2,9, 1, 9, 0, 4, 0.00,60.00,Monday
38,0.0
59,0.0
2,9, 1, 9, 0, 5, 0.00,60.00,Monday
38,0.0
59,0.0
2,9, 1, 9, 0, 6, 0.00,60.00,Monday
38,0.0
59,0.0
2,9, 1, 9, 0, 7, 0.00,60.00,Monday
38,0.0
59,0.0
2,9, 1, 9, 0, 8, 0.00,60.00,Monday
38,0.0
59,0.0
2,9, 1, 9, 0, 9, 0.00,60.00,Monday
38,0.0
59,0.0
2,9, 1, 9, 0,10, 0.00,60.00,Monday
38,0.0
59,8376718.284780467
2,9, 1, 9, 0,11, 0.00,60.00,Monday
38,0.0
59,9592199.6433742
2,9, 1, 9, 0,12, 0.00,60.00,Monday
38,0.0
59,11396235.311766487
2,9, 1, 9, 0,13, 0.00,60.00,Monday
38,0.0
59,13174858.852033163
2,9, 1, 9, 0,14, 0.00,60.00,Monday
38,0.0
59,14823854.149010685
2,9, 1, 9, 0,15, 0.00,60.00,Monday
38,0.0
59,16391146.996058245
2,9, 1, 9, 0,16, 0.00,60.00,Monday
38,0.0
59,17190869.16969435
2,9, 1, 9, 0,17, 0.00,60.00,Monday
38,0.0
59,17185858.297248458
2,9, 1, 9, 0,18, 0.00,60.00,Monday
38,0.0
59,0.0
2,9, 1, 9, 0,19, 0.00,60.00,Monday
38,0.0
59,0.0
2,9, 1, 9, 0,20, 0.00,60.00,Monday
38,0.0
59,0.0
2,9, 1, 9, 0,21, 0.00,60.00,Monday
38,0.0
59,0.0
2,9, 1, 9, 0,22, 0.00,60.00,Monday
38,0.0
59,0.0
2,9, 1, 9, 0,23, 0.00,60.00,Monday
38,0.0
59,0.0
2,9, 1, 9, 0,24, 0.00,60.00,Monday
38,0.0
59,0.0
2,10, 1,10, 0, 1, 0.00,60.00,Tuesday
38,0.0
59,0.0
2,10, 1,10, 0, 2, 0.00,60.00,Tuesday
38,0.0
59,0.0
2,10, 1,10, 0, 3, 0.00,60.00,Tuesday
38,0.0
59,0.0
2,10, 1,10, 0, 4, 0.00,60.00,Tuesday
38,0.0
59,0.0
2,10, 1,10, 0, 5, 0.00,60.00,Tuesday
38,0.0
59,0.0
2,10, 1,10, 0, 6, 0.00,60.00,Tuesday
38,0.0
59,0.0
2,10, 1,10, 0, 7, 0.00,60.00,Tuesday
38,0.0
59,0.0
2,10, 1,10, 0, 8, 0.00,60.00,Tuesday
38,0.0
59,0.0
2,10, 1,10, 0, 9, 0.00,60.00,Tuesday
38,0.0
59,0.0
2,10, 1,10, 0,10, 0.00,60.00,Tuesday
38,0.0
59,8573752.061468309
2,10, 1,10, 0,11, 0.00,60.00,Tuesday
38,0.0
59,9735263.980784756
2,10, 1,10, 0,12, 0.00,60.00,Tuesday
38,0.0
59,11258548.31028338
2,10, 1,10, 0,13, 0.00,60.00,Tuesday
38,0.0
59,12973608.91530146
2,10, 1,10, 0,14, 0.00,60.00,Tuesday
38,0.0
59,14640283.024195398
2,10, 1,10, 0,15, 0.00,60.00,Tuesday
38,0.0
59,15792189.172811408
2,10, 1,10, 0,16, 0.00,60.00,Tuesday
38,0.0
59,16339111.046068397
2,10, 1,10, 0,17, 0.00,60.00,Tuesday
38,0.0
59,16109665.030801634
2,10, 1,10, 0,18, 0.00,60.00,Tuesday
38,0.0
59,0.0
2,10, 1,10, 0,19, 0.00,60.00,Tuesday
38,0.0
59,0.0
2,10, 1,10, 0,20, 0.00,60.00,Tuesday
38,0.0
59,0.0
2,10, 1,10, 0,21, 0.00,60.00,Tuesday
38,0.0
59,0.0
2,10, 1,10, 0,22, 0.00,60.00,Tuesday
38,0.0
59,0.0
2,10, 1,10, 0,23, 0.00,60.00,Tuesday
38,0.0
59,0.0
2,10, 1,10, 0,24, 0.00,60.00,Tuesday
38,0.0
59,0.0
2,11, 1,11, 0, 1, 0.00,60.00,Wednesday
38,0.0
59,0.0
2,11, 1,11, 0, 2, 0.00,60.00,Wednesday
38,0.0
59,0.0
2,11, 1,11, 0, 3, 0.00,60.00,Wednesday
38,0.0
59,0.0
2,11, 1,11, 0, 4, 0.00,60.00,Wednesday
38,0.0
59,0.0
2,11, 1,11, 0, 5, 0.00,60.00,Wednesday
38,0.0
59,0.0
2,11, 1,11, 0, 6, 0.00,60.00,Wednesday
38,0.0
59,0.0
2,11, 1,11, 0, 7, 0.00,60.00,Wednesday
38,0.0
59,0.0
2,11, 1,11, 0, 8, 0.00,60.00,Wednesday
38,0.0
59,0.0
2,11, 1,11, 0, 9, 0.00,60.00,Wednesday
38,0.0
59,0.0
2,11, 1,11, 0,10, 0.00,60.00,Wednesday
38,0.0
59,8383881.82544006
2,11, 1,11, 0,11, 0.00,60.00,Wednesday
38,0.0
59,9783579.078195945
2,11, 1,11, 0,12, 0.00,60.00,Wednesday
38,0.0
59,11460569.249711397
2,11, 1,11, 0,13, 0.00,60.00,Wednesday
38,0.0
59,13144184.00881661
2,11, 1,11, 0,14, 0.00,60.00,Wednesday
38,0.0
59,14453739.334343203
2,11, 1,11, 0,15, 0.00,60.00,Wednesday
38,0.0
59,15632903.29737908
2,11, 1,11, 0,16, 0.00,60.00,Wednesday
38,0.0
59,16262034.741501362
2,11, 1,11, 0,17, 0.00,60.00,Wednesday
38,0.0
59,15862001.057503822
2,11, 1,11, 0,18, 0.00,60.00,Wednesday
38,0.0
59,0.0
2,11, 1,11, 0,19, 0.00,60.00,Wednesday
38,0.0
59,0.0
2,11, 1,11, 0,20, 0.00,60.00,Wednesday
38,0.0
59,0.0
2,11, 1,11, 0,21, 0.00,60.00,Wednesday
38,0.0
59,0.0
2,11, 1,11, 0,22, 0.00,60.00,Wednesday
38,0.0
59,0.0
2,11, 1,11, 0,23, 0.00,60.00,Wednesday
38,0.0
59,0.0
2,11, 1,11, 0,24, 0.00,60.00,Wednesday
38,0.0
59,0.0
2,12, 1,12, 0, 1, 0.00,60.00,Thursday
38,0.0
59,0.0
2,12, 1,12, 0, 2, 0.00,60.00,Thursday
38,0.0
59,0.0
2,12, 1,12, 0, 3, 0.00,60.00,Thursday
38,0.0
59,0.0
2,12, 1,12, 0, 4, 0.00,60.00,Thursday
38,0.0
59,0.0
2,12, 1,12, 0, 5, 0.00,60.00,Thursday
38,0.0
59,0.0
2,12, 1,12, 0, 6, 0.00,60.00,Thursday
38,0.0
59,0.0
2,12, 1,12, 0, 7, 0.00,60.00,Thursday
38,0.0
59,0.0
2,12, 1,12, 0, 8, 0.00,60.00,Thursday
38,0.0
59,0.0
2,12, 1,12, 0, 9, 0.00,60.00,Thursday
38,0.0
59,0.0
2,12, 1,12, 0,10, 0.00,60.00,Thursday
38,0.0
59,6653014.6812115809
2,12, 1,12, 0,11, 0.00,60.00,Thursday
38,0.0
59,8254485.726762274
2,12, 1,12, 0,12, 0.00,60.00,Thursday
38,0.0
59,9966862.863913317
2,12, 1,12, 0,13, 0.00,60.00,Thursday
38,0.0
59,11789979.940104003
2,12, 1,12, 0,14, 0.00,60.00,Thursday
38,0.0
59,13349718.889788278
2,12, 1,12, 0,15, 0.00,60.00,Thursday
38,0.0
59,14790560.600975134
2,12, 1,12, 0,16, 0.00,60.00,Thursday
38,0.0
59,15672459.590415996
2,12, 1,12, 0,17, 0.00,60.00,Thursday
38,0.0
59,15778291.161454414
2,12, 1,12, 0,18, 0.00,60.00,Thursday
38,0.0
59,0.0
2,12, 1,12, 0,19, 0.00,60.00,Thursday
38,0.0
59,0.0
2,12, 1,12, 0,20, 0.00,60.00,Thursday
38,0.0
59,0.0
2,12, 1,12, 0,21, 0.00,60.00,Thursday
38,0.0
59,0.0
2,12, 1,12, 0,22, 0.00,60.00,Thursday
38,0.0
59,0.0
2,12, 1,12, 0,23, 0.00,60.00,Thursday
38,0.0
59,0.0
2,12, 1,12, 0,24, 0.00,60.00,Thursday
38,0.0
59,0.0
2,13, 1,13, 0, 1, 0.00,60.00,Friday
38,0.0
59,0.0
2,13, 1,13, 0, 2, 0.00,60.00,Friday
38,0.0
59,0.0
2,13, 1,13, 0, 3, 0.00,60.00,Friday
38,0.0
59,0.0
2,13, 1,13, 0, 4, 0.00,60.00,Friday
38,0.0
59,0.0
2,13, 1,13, 0, 5, 0.00,60.00,Friday
38,0.0
59,0.0
2,13, 1,13, 0, 6, 0.00,60.00,Friday
38,0.0
59,0.0
2,13, 1,13, 0, 7, 0.00,60.00,Friday
38,0.0
59,0.0
2,13, 1,13, 0, 8, 0.00,60.00,Friday
38,0.0
59,0.0
2,13, 1,13, 0, 9, 0.00,60.00,Friday
38,0.0
59,0.0
2,13, 1,13, 0,10, 0.00,60.00,Friday
38,0.0
59,8220487.50758232
2,13, 1,13, 0,11, 0.00,60.00,Friday
38,0.0
59,9484871.584471612
2,13, 1,13, 0,12, 0.00,60.00,Friday
38,0.0
59,11168356.387498437
2,13, 1,13, 0,13, 0.00,60.00,Friday
38,0.0
59,12907565.05463129
2,13, 1,13, 0,14, 0.00,60.00,Friday
38,0.0
59,14272190.089215864
2,13, 1,13, 0,15, 0.00,60.00,Friday
38,0.0
59,15461674.789345814
2,13, 1,13, 0,16, 0.00,60.00,Friday
38,0.0
59,16071332.66859139
2,13, 1,13, 0,17, 0.00,60.00,Friday
38,0.0
59,15904484.409404893
2,13, 1,13, 0,18, 0.00,60.00,Friday
38,0.0
59,0.0
2,13, 1,13, 0,19, 0.00,60.00,Friday
38,0.0
59,0.0
2,13, 1,13, 0,20, 0.00,60.00,Friday
38,0.0
59,0.0
2,13, 1,13, 0,21, 0.00,60.00,Friday
38,0.0
59,0.0
2,13, 1,13, 0,22, 0.00,60.00,Friday
38,0.0
59,0.0
2,13, 1,13, 0,23, 0.00,60.00,Friday
38,0.0
59,0.0
2,13, 1,13, 0,24, 0.00,60.00,Friday
38,0.0
59,0.0
2,14, 1,14, 0, 1, 0.00,60.00,Saturday
38,0.0
59,0.0
2,14, 1,14, 0, 2, 0.00,60.00,Saturday
38,0.0
59,0.0
2,14, 1,14, 0, 3, 0.00,60.00,Saturday
38,0.0
59,0.0
2,14, 1,14, 0, 4, 0.00,60.00,Saturday
38,0.0
59,0.0
2,14, 1,14, 0, 5, 0.00,60.00,Saturday
38,0.0
59,0.0
2,14, 1,14, 0, 6, 0.00,60.00,Saturday
38,0.0
59,0.0
2,14, 1,14, 0, 7, 0.00,60.00,Saturday
38,0.0
59,0.0
2,14, 1,14, 0, 8, 0.00,60.00,Saturday
38,0.0
59,0.0
2,14, 1,14, 0, 9, 0.00,60.00,Saturday
38,0.0
59,0.0
2,14, 1,14, 0,10, 0.00,60.00,Saturday
38,0.0
59,7499654.240032577
2,14, 1,14, 0,11, 0.00,60.00,Saturday
38,0.0
59,7706796.19870775
2,14, 1,14, 0,12, 0.00,60.00,Saturday
38,0.0
59,8115267.967928752
2,14, 1,14, 0,13, 0.00,60.00,Saturday
38,0.0
59,8841800.610509767
2,14, 1,14, 0,14, 0.00,60.00,Saturday
38,0.0
59,9882441.289613082
2,14, 1,14, 0,15, 0.00,60.00,Saturday
38,0.0
59,10893250.761698494
2,14, 1,14, 0,16, 0.00,60.00,Saturday
38,0.0
59,11714016.129743036
2,14, 1,14, 0,17, 0.00,60.00,Saturday
38,0.0
59,12108741.375688965
2,14, 1,14, 0,18, 0.00,60.00,Saturday
38,0.0
59,0.0
2,14, 1,14, 0,19, 0.00,60.00,Saturday
38,0.0
59,0.0
2,14, 1,14, 0,20, 0.00,60.00,Saturday
38,0.0
59,0.0
2,14, 1,14, 0,21, 0.00,60.00,Saturday
38,0.0
59,0.0
2,14, 1,14, 0,22, 0.00,60.00,Saturday
38,0.0
59,0.0
2,14, 1,14, 0,23, 0.00,60.00,Saturday
38,0.0
59,0.0
2,14, 1,14, 0,24, 0.00,60.00,Saturday
38,0.0
59,0.0
2,15, 1,15, 0, 1, 0.00,60.00,Sunday
38,0.0
59,0.0
2,15, 1,15, 0, 2, 0.00,60.00,Sunday
38,0.0
59,0.0
2,15, 1,15, 0, 3, 0.00,60.00,Sunday
38,0.0
59,0.0
2,15, 1,15, 0, 4, 0.00,60.00,Sunday
38,0.0
59,0.0
2,15, 1,15, 0, 5, 0.00,60.00,Sunday
38,0.0
59,0.0
2,15, 1,15, 0, 6, 0.00,60.00,Sunday
38,0.0
59,0.0
2,15, 1,15, 0, 7, 0.00,60.00,Sunday
38,0.0
59,0.0
2,15, 1,15, 0, 8, 0.00,60.00,Sunday
38,0.0
59,0.0
2,15, 1,15, 0, 9, 0.00,60.00,Sunday
38,0.0
59,0.0
2,15, 1,15, 0,10, 0.00,60.00,Sunday
38,0.0
59,7634158.213329168
2,15, 1,15, 0,11, 0.00,60.00,Sunday
38,0.0
59,8962549.05298737
2,15, 1,15, 0,12, 0.00,60.00,Sunday
38,0.0
59,10449964.70684411
2,15, 1,15, 0,13, 0.00,60.00,Sunday
38,0.0
59,11778366.789148463
2,15, 1,15, 0,14, 0.00,60.00,Sunday
38,0.0
59,12994290.413063407
2,15, 1,15, 0,15, 0.00,60.00,Sunday
38,0.0
59,14096183.778856777
2,15, 1,15, 0,16, 0.00,60.00,Sunday
38,0.0
59,14626462.752622385
2,15, 1,15, 0,17, 0.00,60.00,Sunday
38,0.0
59,14429051.916510296
2,15, 1,15, 0,18, 0.00,60.00,Sunday
38,0.0
59,0.0
2,15, 1,15, 0,19, 0.00,60.00,Sunday
38,0.0
59,0.0
2,15, 1,15, 0,20, 0.00,60.00,Sunday
38,0.0
59,0.0
2,15, 1,15, 0,21, 0.00,60.00,Sunday
38,0.0
59,0.0
2,15, 1,15, 0,22, 0.00,60.00,Sunday
38,0.0
59,0.0
2,15, 1,15, 0,23, 0.00,60.00,Sunday
38,0.0
59,0.0
2,15, 1,15, 0,24, 0.00,60.00,Sunday
38,0.0
59,0.0
2,16, 1,16, 0, 1, 0.00,60.00,Monday
38,0.0
59,0.0
2,16, 1,16, 0, 2, 0.00,60.00,Monday
38,0.0
59,0.0
2,16, 1,16, 0, 3, 0.00,60.00,Monday
38,0.0
59,0.0
2,16, 1,16, 0, 4, 0.00,60.00,Monday
38,0.0
59,0.0
2,16, 1,16, 0, 5, 0.00,60.00,Monday
38,0.0
59,0.0
2,16, 1,16, 0, 6, 0.00,60.00,Monday
38,0.0
59,0.0
2,16, 1,16, 0, 7, 0.00,60.00,Monday
38,0.0
59,0.0
2,16, 1,16, 0, 8, 0.00,60.00,Monday
38,0.0
59,0.0
2,16, 1,16, 0, 9, 0.00,60.00,Monday
38,0.0
59,0.0
2,16, 1,16, 0,10, 0.00,60.00,Monday
38,0.0
59,6968161.463987175
2,16, 1,16, 0,11, 0.00,60.00,Monday
38,0.0
59,7262097.6236622319
2,16, 1,16, 0,12, 0.00,60.00,Monday
38,0.0
59,7479846.29083584
2,16, 1,16, 0,13, 0.00,60.00,Monday
38,0.0
59,7750903.7839039829
2,16, 1,16, 0,14, 0.00,60.00,Monday
38,0.0
59,8089690.609346768
2,16, 1,16, 0,15, 0.00,60.00,Monday
38,0.0
59,8395926.298151952
2,16, 1,16, 0,16, 0.00,60.00,Monday
38,0.0
59,8565329.11393267
2,16, 1,16, 0,17, 0.00,60.00,Monday
38,0.0
59,8556296.184233677
2,16, 1,16, 0,18, 0.00,60.00,Monday
38,0.0
59,0.0
2,16, 1,16, 0,19, 0.00,60.00,Monday
38,0.0
59,0.0
2,16, 1,16, 0,20, 0.00,60.00,Monday
38,0.0
59,0.0
2,16, 1,16, 0,21, 0.00,60.00,Monday
38,0.0
59,0.0
2,16, 1,16, 0,22, 0.00,60.00,Monday
38,0.0
59,0.0
2,16, 1,16, 0,23, 0.00,60.00,Monday
38,0.0
59,0.0
2,16, 1,16, 0,24, 0.00,60.00,Monday
38,0.0
59,0.0
2,17, 1,17, 0, 1, 0.00,60.00,Tuesday
38,0.0
59,0.0
2,17, 1,17, 0, 2, 0.00,60.00,Tuesday
38,0.0
59,0.0
2,17, 1,17, 0, 3, 0.00,60.00,Tuesday
38,0.0
59,0.0
2,17, 1,17, 0, 4, 0.00,60.00,Tuesday
38,0.0
59,0.0
2,17, 1,17, 0, 5, 0.00,60.00,Tuesday
38,0.0
59,0.0
2,17, 1,17, 0, 6, 0.00,60.00,Tuesday
38,0.0
59,0.0
2,17, 1,17, 0, 7, 0.00,60.00,Tuesday
38,0.0
59,0.0
2,17, 1,17, 0, 8, 0.00,60.00,Tuesday
38,0.0
59,0.0
2,17, 1,17, 0, 9, 0.00,60.00,Tuesday
38,0.0
59,0.0
2,17, 1,17, 0,10, 0.00,60.00,Tuesday
38,0.0
59,4694078.901566763
2,17, 1,17, 0,11, 0.00,60.00,Tuesday
38,0.0
59,6504126.35383589
2,17, 1,17, 0,12, 0.00,60.00,Tuesday
38,0.0
59,7199344.9376991479
2,17, 1,17, 0,13, 0.00,60.00,Tuesday
38,0.0
59,8464777.51945252
2,17, 1,17, 0,14, 0.00,60.00,Tuesday
38,0.0
59,9924255.920776634
2,17, 1,17, 0,15, 0.00,60.00,Tuesday
38,0.0
59,11400279.65388025
2,17, 1,17, 0,16, 0.00,60.00,Tuesday
38,0.0
59,12402955.708064735
2,17, 1,17, 0,17, 0.00,60.00,Tuesday
38,0.0
59,12771649.965737235
2,17, 1,17, 0,18, 0.00,60.00,Tuesday
38,0.0
59,0.0
2,17, 1,17, 0,19, 0.00,60.00,Tuesday
38,0.0
59,0.0
2,17, 1,17, 0,20, 0.00,60.00,Tuesday
38,0.0
59,0.0
2,17, 1,17, 0,21, 0.00,60.00,Tuesday
38,0.0
59,0.0
2,17, 1,17, 0,22, 0.00,60.00,Tuesday
38,0.0
59,0.0
2,17, 1,17, 0,23, 0.00,60.00,Tuesday
38,0.0
59,0.0
2,17, 1,17, 0,24, 0.00,60.00,Tuesday
38,0.0
59,0.0
2,18, 1,18, 0, 1, 0.00,60.00,Wednesday
38,0.0
59,0.0
2,18, 1,18, 0, 2, 0.00,60.00,Wednesday
38,0.0
59,0.0
2,18, 1,18, 0, 3, 0.00,60.00,Wednesday
38,0.0
59,0.0
2,18, 1,18, 0, 4, 0.00,60.00,Wednesday
38,0.0
59,0.0
2,18, 1,18, 0, 5, 0.00,60.00,Wednesday
38,0.0
59,0.0
2,18, 1,18, 0, 6, 0.00,60.00,Wednesday
38,0.0
59,0.0
2,18, 1,18, 0, 7, 0.00,60.00,Wednesday
38,0.0
59,0.0
2,18, 1,18, 0, 8, 0.00,60.00,Wednesday
38,0.0
59,0.0
2,18, 1,18, 0, 9, 0.00,60.00,Wednesday
38,0.0
59,0.0
2,18, 1,18, 0,10, 0.00,60.00,Wednesday
38,0.0
59,6438550.552812185
2,18, 1,18, 0,11, 0.00,60.00,Wednesday
38,0.0
59,6939902.921043702
2,18, 1,18, 0,12, 0.00,60.00,Wednesday
38,0.0
59,7253849.371765096
2,18, 1,18, 0,13, 0.00,60.00,Wednesday
38,0.0
59,7943569.651949117
2,18, 1,18, 0,14, 0.00,60.00,Wednesday
38,0.0
59,8795473.755924348
2,18, 1,18, 0,15, 0.00,60.00,Wednesday
38,0.0
59,9489143.685504068
2,18, 1,18, 0,16, 0.00,60.00,Wednesday
38,0.0
59,9907685.91395
2,18, 1,18, 0,17, 0.00,60.00,Wednesday
38,0.0
59,9993613.858661719
2,18, 1,18, 0,18, 0.00,60.00,Wednesday
38,0.0
59,0.0
2,18, 1,18, 0,19, 0.00,60.00,Wednesday
38,0.0
59,0.0
2,18, 1,18, 0,20, 0.00,60.00,Wednesday
38,0.0
59,0.0
2,18, 1,18, 0,21, 0.00,60.00,Wednesday
38,0.0
59,0.0
2,18, 1,18, 0,22, 0.00,60.00,Wednesday
38,0.0
59,0.0
2,18, 1,18, 0,23, 0.00,60.00,Wednesday
38,0.0
59,0.0
2,18, 1,18, 0,24, 0.00,60.00,Wednesday
38,0.0
59,0.0
2,19, 1,19, 0, 1, 0.00,60.00,Thursday
38,0.0
59,0.0
2,19, 1,19, 0, 2, 0.00,60.00,Thursday
38,0.0
59,0.0
2,19, 1,19, 0, 3, 0.00,60.00,Thursday
38,0.0
59,0.0
2,19, 1,19, 0, 4, 0.00,60.00,Thursday
38,0.0
59,0.0
2,19, 1,19, 0, 5, 0.00,60.00,Thursday
38,0.0
59,0.0
2,19, 1,19, 0, 6, 0.00,60.00,Thursday
38,0.0
59,0.0
2,19, 1,19, 0, 7, 0.00,60.00,Thursday
38,0.0
59,0.0
2,19, 1,19, 0, 8, 0.00,60.00,Thursday
38,0.0
59,0.0
2,19, 1,19, 0, 9, 0.00,60.00,Thursday
38,0.0
59,0.0
2,19, 1,19, 0,10, 0.00,60.00,Thursday
38,0.0
59,6340522.272406869
2,19, 1,19, 0,11, 0.00,60.00,Thursday
38,0.0
59,7686963.094300241
2,19, 1,19, 0,12, 0.00,60.00,Thursday
38,0.0
59,9273771.67174836
2,19, 1,19, 0,13, 0.00,60.00,Thursday
38,0.0
59,10839749.192522498
2,19, 1,19, 0,14, 0.00,60.00,Thursday
38,0.0
59,12298740.237887783
2,19, 1,19, 0,15, 0.00,60.00,Thursday
38,0.0
59,13710860.104472189
2,19, 1,19, 0,16, 0.00,60.00,Thursday
38,0.0
59,14510862.427404389
2,19, 1,19, 0,17, 0.00,60.00,Thursday
38,0.0
59,14637435.031943623
2,19, 1,19, 0,18, 0.00,60.00,Thursday
38,0.0
59,0.0
2,19, 1,19, 0,19, 0.00,60.00,Thursday
38,0.0
59,0.0
2,19, 1,19, 0,20, 0.00,60.00,Thursday
38,0.0
59,0.0
2,19, 1,19, 0,21, 0.00,60.00,Thursday
38,0.0
59,0.0
2,19, 1,19, 0,22, 0.00,60.00,Thursday
38,0.0
59,0.0
2,19, 1,19, 0,23, 0.00,60.00,Thursday
38,0.0
59,0.0
2,19, 1,19, 0,24, 0.00,60.00,Thursday
38,0.0
59,0.0
2,20, 1,20, 0, 1, 0.00,60.00,Friday
38,0.0
59,0.0
2,20, 1,20, 0, 2, 0.00,60.00,Friday
38,0.0
59,0.0
2,20, 1,20, 0, 3, 0.00,60.00,Friday
38,0.0
59,0.0
2,20, 1,20, 0, 4, 0.00,60.00,Friday
38,0.0
59,0.0
2,20, 1,20, 0, 5, 0.00,60.00,Friday
38,0.0
59,0.0
2,20, 1,20, 0, 6, 0.00,60.00,Friday
38,0.0
59,0.0
2,20, 1,20, 0, 7, 0.00,60.00,Friday
38,0.0
59,0.0
2,20, 1,20, 0, 8, 0.00,60.00,Friday
38,0.0
59,0.0
2,20, 1,20, 0, 9, 0.00,60.00,Friday
38,0.0
59,0.0
2,20, 1,20, 0,10, 0.00,60.00,Friday
38,0.0
59,7728778.253910917
2,20, 1,20, 0,11, 0.00,60.00,Friday
38,0.0
59,9020095.964966249
2,20, 1,20, 0,12, 0.00,60.00,Friday
38,0.0
59,10651394.295363563
2,20, 1,20, 0,13, 0.00,60.00,Friday
38,0.0
59,12187252.703949864
2,20, 1,20, 0,14, 0.00,60.00,Friday
38,0.0
59,13613476.844022925
2,20, 1,20, 0,15, 0.00,60.00,Friday
38,0.0
59,14898145.807694637
2,20, 1,20, 0,16, 0.00,60.00,Friday
38,0.0
59,15522970.55269896
2,20, 1,20, 0,17, 0.00,60.00,Friday
38,0.0
59,15449147.702037668
2,20, 1,20, 0,18, 0.00,60.00,Friday
38,0.0
59,0.0
2,20, 1,20, 0,19, 0.00,60.00,Friday
38,0.0
59,0.0
2,20, 1,20, 0,20, 0.00,60.00,Friday
38,0.0
59,0.0
2,20, 1,20, 0,21, 0.00,60.00,Friday
38,0.0
59,0.0
2,20, 1,20, 0,22, 0.00,60.00,Friday
38,0.0
59,0.0
2,20, 1,20, 0,23, 0.00,60.00,Friday
38,0.0
59,0.0
2,20, 1,20, 0,24, 0.00,60.00,Friday
38,0.0
59,0.0
2,21, 1,21, 0, 1, 0.00,60.00,Saturday
38,0.0
59,0.0
2,21, 1,21, 0, 2, 0.00,60.00,Saturday
38,0.0
59,0.0
2,21, 1,21, 0, 3, 0.00,60.00,Saturday
38,0.0
59,0.0
2,21, 1,21, 0, 4, 0.00,60.00,Saturday
38,0.0
59,0.0
2,21, 1,21, 0, 5, 0.00,60.00,Saturday
38,0.0
59,0.0
2,21, 1,21, 0, 6, 0.00,60.00,Saturday
38,0.0
59,0.0
2,21, 1,21, 0, 7, 0.00,60.00,Saturday
38,0.0
59,0.0
2,21, 1,21, 0, 8, 0.00,60.00,Saturday
38,0.0
59,0.0
2,21, 1,21, 0, 9, 0.00,60.00,Saturday
38,0.0
59,0.0
2,21, 1,21, 0,10, 0.00,60.00,Saturday
38,0.0
59,7661969.876668657
2,21, 1,21, 0,11, 0.00,60.00,Saturday
38,0.0
59,8897871.22704166
2,21, 1,21, 0,12, 0.00,60.00,Saturday
38,0.0
59,10625320.183557572
2,21, 1,21, 0,13, 0.00,60.00,Saturday
38,0.0
59,12365100.961885622
2,21, 1,21, 0,14, 0.00,60.00,Saturday
38,0.0
59,14115609.247296552
2,21, 1,21, 0,15, 0.00,60.00,Saturday
38,0.0
59,15758683.831255418
2,21, 1,21, 0,16, 0.00,60.00,Saturday
38,0.0
59,16681788.055964774
2,21, 1,21, 0,17, 0.00,60.00,Saturday
38,0.0
59,16886074.384591327
2,21, 1,21, 0,18, 0.00,60.00,Saturday
38,0.0
59,0.0
2,21, 1,21, 0,19, 0.00,60.00,Saturday
38,0.0
59,0.0
2,21, 1,21, 0,20, 0.00,60.00,Saturday
38,0.0
59,0.0
2,21, 1,21, 0,21, 0.00,60.00,Saturday
38,0.0
59,0.0
2,21, 1,21, 0,22, 0.00,60.00,Saturday
38,0.0
59,0.0
2,21, 1,21, 0,23, 0.00,60.00,Saturday
38,0.0
59,0.0
2,21, 1,21, 0,24, 0.00,60.00,Saturday
38,0.0
59,0.0
2,22, 1,22, 0, 1, 0.00,60.00,Sunday
38,0.0
59,0.0
2,22, 1,22, 0, 2, 0.00,60.00,Sunday
38,0.0
59,0.0
2,22, 1,22, 0, 3, 0.00,60.00,Sunday
38,0.0
59,0.0
2,22, 1,22, 0, 4, 0.00,60.00,Sunday
38,0.0
59,0.0
2,22, 1,22, 0, 5, 0.00,60.00,Sunday
38,0.0
59,0.0
2,22, 1,22, 0, 6, 0.00,60.00,Sunday
38,0.0
59,0.0
2,22, 1,22, 0, 7, 0.00,60.00,Sunday
38,0.0
59,0.0
2,22, 1,22, 0, 8, 0.00,60.00,Sunday
38,0.0
59,0.0
2,22, 1,22, 0, 9, 0.00,60.00,Sunday
38,0.0
59,0.0
2,22, 1,22, 0,10, 0.00,60.00,Sunday
38,0.0
59,7739311.65836504
2,22, 1,22, 0,11, 0.00,60.00,Sunday
38,0.0
59,9012096.415949474
2,22, 1,22, 0,12, 0.00,60.00,Sunday
38,0.0
59,10692714.479722346
2,22, 1,22, 0,13, 0.00,60.00,Sunday
38,0.0
59,12325877.472166788
2,22, 1,22, 0,14, 0.00,60.00,Sunday
38,0.0
59,13856228.714701653
2,22, 1,22, 0,15, 0.00,60.00,Sunday
38,0.0
59,14742311.423850889
2,22, 1,22, 0,16, 0.00,60.00,Sunday
38,0.0
59,14537056.463378435
2,22, 1,22, 0,17, 0.00,60.00,Sunday
38,0.0
59,13377250.639468108
2,22, 1,22, 0,18, 0.00,60.00,Sunday
38,0.0
59,0.0
2,22, 1,22, 0,19, 0.00,60.00,Sunday
38,0.0
59,0.0
2,22, 1,22, 0,20, 0.00,60.00,Sunday
38,0.0
59,0.0
2,22, 1,22, 0,21, 0.00,60.00,Sunday
38,0.0
59,0.0
2,22, 1,22, 0,22, 0.00,60.00,Sunday
38,0.0
59,0.0
2,22, 1,22, 0,23, 0.00,60.00,Sunday
38,0.0
59,0.0